
     Program BANDS v.6.4.1 starts on 17Sep2020 at  1: 3: 1 

     This program is part of the open-source Quantum ESPRESSO suite
     for quantum simulation of materials; please cite
         "P. Giannozzi et al., J. Phys.:Condens. Matter 21 395502 (2009);
         "P. Giannozzi et al., J. Phys.:Condens. Matter 29 465901 (2017);
          URL http://www.quantum-espresso.org", 
     in publications or presentations arising from this work. More details at
     http://www.quantum-espresso.org/quote

     Parallel version (MPI), running on     1 processors

     MPI processes distributed on     1 nodes

     Reading data from directory:
     ./outdir/si.save/

     IMPORTANT: XC functional enforced from input :
     Exchange-correlation      = PBE ( 1  4  3  4 0 0)
     Any further DFT definition will be discarded
     Please, verify this is what you really want


     G-vector sticks info
     --------------------
     sticks:   dense  smooth     PW     G-vecs:    dense   smooth      PW
     Sum        1189     595    187                27317     9577    1687

     high-symmetry point:  0.0000 0.0000 0.0000   x coordinate   0.0000
     high-symmetry point: -0.3750 0.3750-0.3750   x coordinate   0.6495
     high-symmetry point:  0.5000-0.5000 0.5000   x coordinate   0.6495
     high-symmetry point:  0.0000 0.2500 0.0000   x coordinate   1.6803
     high-symmetry point: -0.2500 0.5000-0.2500   x coordinate   2.1133
     high-symmetry point:  0.6250-0.3750 0.6250   x coordinate   2.1133
     high-symmetry point:  0.2500 0.0000 0.2500   x coordinate   2.7628
     high-symmetry point:  0.0000 0.5000 0.0000   x coordinate   3.3752
     high-symmetry point: -0.1250 0.6250-0.1250   x coordinate   3.5917
     high-symmetry point:  0.7500-0.2500 0.7500   x coordinate   3.5917
     high-symmetry point:  0.5000 0.0000 0.5000   x coordinate   4.0247
     high-symmetry point:  0.0000 0.7500 0.0000   x coordinate   5.0555
     high-symmetry point:  0.8750-0.1250 0.8750   x coordinate   6.5710
     high-symmetry point:  0.7500 0.0000 0.7500   x coordinate   6.7875
     high-symmetry point:  0.0000-1.0000 0.0000   x coordinate   6.7875
     high-symmetry point: -0.2500 0.5000 0.0000   x coordinate   6.7875
     high-symmetry point:  0.6250-0.3750 0.8750   x coordinate   6.7875
     high-symmetry point:  0.5000-0.2500 0.7500   x coordinate   7.0041
     high-symmetry point:  0.7500-0.2500 1.0000   x coordinate   7.3576
     high-symmetry point:  0.5000 0.0000 0.7500   x coordinate   7.7906
     high-symmetry point: -0.2500-1.0000 0.0000   x coordinate   7.7906
     high-symmetry point: -0.5000-1.0000 0.0000   x coordinate   8.0406

     Plottable bands (eV) written to file si.bands.dat.gnu
     Bands written to file si.bands.dat

 **************************************************************************

                    xk=(   0.00000,   0.00000,   0.00000  )

     point group O_h (m-3m) 
     there are 10 classes
     the character table:

       E     8C3   3C2   6C4   6C2'  i     8S6   3s_h  6S4   6s_d 
A_1g   1.00  1.00  1.00  1.00  1.00  1.00  1.00  1.00  1.00  1.00
A_2g   1.00  1.00  1.00 -1.00 -1.00  1.00  1.00  1.00 -1.00 -1.00
E_g    2.00 -1.00  2.00  0.00  0.00  2.00 -1.00  2.00  0.00  0.00
T_1g   3.00  0.00 -1.00  1.00 -1.00  3.00  0.00 -1.00  1.00 -1.00
T_2g   3.00  0.00 -1.00 -1.00  1.00  3.00  0.00 -1.00 -1.00  1.00
A_1u   1.00  1.00  1.00  1.00  1.00 -1.00 -1.00 -1.00 -1.00 -1.00
A_2u   1.00  1.00  1.00 -1.00 -1.00 -1.00 -1.00 -1.00  1.00  1.00
E_u    2.00 -1.00  2.00  0.00  0.00 -2.00  1.00 -2.00  0.00  0.00
T_1u   3.00  0.00 -1.00  1.00 -1.00 -3.00  0.00  1.00 -1.00  1.00
T_2u   3.00  0.00 -1.00 -1.00  1.00 -3.00  0.00  1.00  1.00 -1.00

     the symmetry operations in each class and the name of the first element:

     E        1
                                                                 
     8C3     17   19   20   18   24   21   22   23
                                                                 
     3C2      2    4    3
                                                                 
     6C4      7    8   15   16   12   11
                                                                 
     6C2'     5    6   14   13   10    9
                                                                 
     i       25
                                                                 
     8S6     41   43   44   42   48   45   46   47
                                                                 
     3s_h    26   28   27
                                                                 
     6S4     31   32   39   40   36   35
                                                                 
     6s_d    29   30   38   37   34   33
                                                                 

     Band symmetry, O_h (m-3m)  point group:

     e(  1 -  1) =     -5.90920  eV     1   --> A_1g G_1   G_1+
     e(  2 -  4) =      5.76163  eV     3   --> T_2g G_25' G_5+
     e(  5 -  7) =      8.30562  eV     3   --> T_1u G_15  G_4-
     e(  8 -  8) =      8.63432  eV     1   --> A_2u G_2'  G_2-

 **************************************************************************

 **************************************************************************

                    xk=(  -0.12500,   0.12500,  -0.12500  )

     point group C_3v (3m)  
     there are  3 classes
     the character table:

       E     2C3   3s_v 
A_1    1.00  1.00  1.00
A_2    1.00  1.00 -1.00
E      2.00 -1.00  0.00

     the symmetry operations in each class and the name of the first element:

     E        1
                                                                 
     2C3      2    3
                                                                 
     3s_v     4    5    6
                                                                 

     Band symmetry, C_3v (3m)   point group:

     e(  1 -  1) =     -5.71261  eV     1   --> A_1  L_1       
     e(  2 -  2) =      4.17260  eV     1   --> A_1  L_1       
     e(  3 -  4) =      5.48476  eV     2   --> E    L_3       
     e(  5 -  5) =      8.12908  eV     1   --> A_1  L_1       
     e(  6 -  7) =      8.71280  eV     2   --> E    L_3       
     e(  8 -  8) =     10.10335  eV     1   --> A_1  L_1       

 **************************************************************************

 **************************************************************************

                    xk=(  -0.25000,   0.25000,  -0.25000  )

     Band symmetry, C_3v (3m)   point group:

     e(  1 -  1) =     -5.13999  eV     1   --> A_1  L_1       
     e(  2 -  2) =      1.90902  eV     1   --> A_1  L_1       
     e(  3 -  4) =      5.02895  eV     2   --> E    L_3       
     e(  5 -  5) =      7.63934  eV     1   --> A_1  L_1       
     e(  6 -  7) =      9.23140  eV     2   --> E    L_3       
     e(  8 -  8) =     12.32761  eV     1   --> A_1  L_1       

 **************************************************************************

 **************************************************************************

                    xk=(  -0.37500,   0.37500,  -0.37500  )

     Band symmetry, C_3v (3m)   point group:

     e(  1 -  1) =     -4.28555  eV     1   --> A_1  L_1       
     e(  2 -  2) =     -0.03913  eV     1   --> A_1  L_1       
     e(  3 -  4) =      4.70976  eV     2   --> E    L_3       
     e(  5 -  5) =      7.27513  eV     1   --> A_1  L_1       
     e(  6 -  7) =      9.21442  eV     2   --> E    L_3       
     e(  8 -  8) =     13.54698  eV     1   --> A_1  L_1       

 **************************************************************************

 **************************************************************************

                    xk=(   0.50000,  -0.50000,   0.50000  )

     zone border point and non-symmorphic group 
     symmetry decomposition not available

 **************************************************************************

 **************************************************************************

                    xk=(   0.00000,   0.25000,   0.00000  )

     point group C_4v (4mm) 
     there are  5 classes
     the character table:

       E     2C4   C2    2s_v  2s_d 
A_1    1.00  1.00  1.00  1.00  1.00
A_2    1.00  1.00  1.00 -1.00 -1.00
B_1    1.00 -1.00  1.00  1.00 -1.00
B_2    1.00 -1.00  1.00 -1.00  1.00
E      2.00  0.00 -2.00  0.00  0.00

     the symmetry operations in each class and the name of the first element:

     E        1
                                                                 
     2C4      3    4
                                                                 
     C2       2
                                                                 
     2s_v     5    6
                                                                 
     2s_d     7    8
                                                                 

     Band symmetry, C_4v (4mm)  point group:

     e(  1 -  1) =     -5.64631  eV     1   --> A_1  G_1 D_1   
     e(  2 -  2) =      4.38378  eV     1   --> B_2  G_4 D_2'  
     e(  3 -  4) =      4.99324  eV     2   --> E    G_5 D_5   
     e(  5 -  5) =      7.77640  eV     1   --> A_1  G_1 D_1   
     e(  6 -  7) =      9.39665  eV     2   --> E    G_5 D_5   
     e(  8 -  8) =      9.77729  eV     1   --> B_2  G_4 D_2'  

 **************************************************************************

 **************************************************************************

                    xk=(  -0.12500,   0.37500,  -0.12500  )

     point group C_s (m)    
     there are  2 classes
     the character table:

       E     s    
A'     1.00  1.00
A''    1.00 -1.00

     the symmetry operations in each class and the name of the first element:

     E        1
                                                                 
     s        2
                                                                 

     Band symmetry, C_s (m)     point group:

     e(  1 -  1) =     -5.19532  eV     1   --> A'             
     e(  2 -  2) =      2.56628  eV     1   --> A'             
     e(  3 -  3) =      4.49943  eV     1   --> A''            
     e(  4 -  4) =      4.55076  eV     1   --> A'             
     e(  5 -  5) =      7.89978  eV     1   --> A'             
     e(  6 -  6) =      9.28851  eV     1   --> A'             
     e(  7 -  7) =     10.14408  eV     1   --> A''            
     e(  8 -  8) =     10.48557  eV     1   --> A'             

 **************************************************************************

 **************************************************************************

                    xk=(  -0.25000,   0.50000,  -0.25000  )

     Band symmetry, C_s (m)     point group:

     e(  1 -  1) =     -4.41396  eV     1   --> A'             
     e(  2 -  2) =      0.58377  eV     1   --> A'             
     e(  3 -  3) =      3.97490  eV     1   --> A'             
     e(  4 -  4) =      4.23718  eV     1   --> A''            
     e(  5 -  5) =      7.96302  eV     1   --> A'             
     e(  6 -  6) =      9.29922  eV     1   --> A'             
     e(  7 -  7) =     10.17786  eV     1   --> A''            
     e(  8 -  8) =     11.17402  eV     1   --> A'             

 **************************************************************************

 **************************************************************************

                    xk=(   0.62500,  -0.37500,   0.62500  )

     Band symmetry, C_s (m)     point group:

     e(  1 -  1) =     -3.59810  eV     1   --> A'             
     e(  2 -  2) =     -0.81303  eV     1   --> A'             
     e(  3 -  3) =      3.54622  eV     1   --> A'             
     e(  4 -  4) =      4.25649  eV     1   --> A''            
     e(  5 -  5) =      7.88416  eV     1   --> A'             
     e(  6 -  6) =      9.22419  eV     1   --> A'             
     e(  7 -  7) =      9.84657  eV     1   --> A''            
     e(  8 -  8) =     12.99694  eV     1   --> A'             

 **************************************************************************

 **************************************************************************

                    xk=(   0.50000,  -0.25000,   0.50000  )

     Band symmetry, C_s (m)     point group:

     e(  1 -  1) =     -3.82797  eV     1   --> A'             
     e(  2 -  2) =     -0.46138  eV     1   --> A'             
     e(  3 -  3) =      3.37764  eV     1   --> A'             
     e(  4 -  4) =      4.53875  eV     1   --> A''            
     e(  5 -  5) =      8.01559  eV     1   --> A'             
     e(  6 -  6) =      9.35484  eV     1   --> A'             
     e(  7 -  7) =      9.61861  eV     1   --> A''            
     e(  8 -  8) =     13.49032  eV     1   -->   ?

 **************************************************************************

 **************************************************************************

                    xk=(   0.37500,  -0.12500,   0.37500  )

     Band symmetry, C_s (m)     point group:

     e(  1 -  1) =     -4.70735  eV     1   --> A'             
     e(  2 -  2) =      1.21682  eV     1   --> A'             
     e(  3 -  3) =      3.53575  eV     1   --> A'             
     e(  4 -  4) =      5.01031  eV     1   --> A''            
     e(  5 -  5) =      8.34227  eV     1   --> A'             
     e(  6 -  6) =      9.40198  eV     1   --> A''            
     e(  7 -  7) =      9.57559  eV     1   --> A'             
     e(  8 -  8) =     11.87631  eV     1   --> A'             

 **************************************************************************

 **************************************************************************

                    xk=(   0.25000,   0.00000,   0.25000  )

     point group C_2v (mm2) 
     there are  4 classes
     the character table:

       E     C2    s_v   s_v' 
A_1    1.00  1.00  1.00  1.00
A_2    1.00  1.00 -1.00 -1.00
B_1    1.00 -1.00  1.00 -1.00
B_2    1.00 -1.00 -1.00  1.00

     the symmetry operations in each class and the name of the first element:

     E        1
                                                                 
     C2       2
                                                                 
     s_v      3
                                                                 
     s_v'     4
                                                                 

     Band symmetry, C_2v (mm2)  point group:

     e(  1 -  1) =     -5.38904  eV     1   --> A_1  D_1  S_1  
     e(  2 -  2) =      3.08898  eV     1   --> B_2  D_4  S_4  
     e(  3 -  3) =      4.20896  eV     1   --> A_1  D_1  S_1  
     e(  4 -  4) =      5.47362  eV     1   --> A_2  D_2  S_2  
     e(  5 -  5) =      8.63978  eV     1   --> B_2  D_4  S_4  
     e(  6 -  6) =      8.84953  eV     1   --> B_1  D_3  S_3  
     e(  7 -  7) =      9.06236  eV     1   --> A_1  D_1  S_1  
     e(  8 -  8) =     11.05868  eV     1   --> B_2  D_4  S_4  

 **************************************************************************

 **************************************************************************

                    xk=(   0.00000,   0.50000,   0.00000  )

     point group C_4v (4mm) 
     there are  5 classes
     the character table:

       E     2C4   C2    2s_v  2s_d 
A_1    1.00  1.00  1.00  1.00  1.00
A_2    1.00  1.00  1.00 -1.00 -1.00
B_1    1.00 -1.00  1.00  1.00 -1.00
B_2    1.00 -1.00  1.00 -1.00  1.00
E      2.00  0.00 -2.00  0.00  0.00

     the symmetry operations in each class and the name of the first element:

     E        1
                                                                 
     2C4      3    4
                                                                 
     C2       2
                                                                 
     2s_v     5    6
                                                                 
     2s_d     7    8
                                                                 

     Band symmetry, C_4v (4mm)  point group:

     e(  1 -  1) =     -4.86725  eV     1   --> A_1  G_1 D_1   
     e(  2 -  2) =      2.23366  eV     1   --> B_2  G_4 D_2'  
     e(  3 -  4) =      3.95058  eV     2   --> E    G_5 D_5   
     e(  5 -  5) =      6.93222  eV     1   --> A_1  G_1 D_1   
     e(  6 -  6) =      8.89469  eV     1   --> B_2  G_4 D_2'  
     e(  7 -  8) =     11.37888  eV     2   --> E    G_5 D_5   

 **************************************************************************

 **************************************************************************

                    xk=(  -0.12500,   0.62500,  -0.12500  )

     point group C_s (m)    
     there are  2 classes
     the character table:

       E     s    
A'     1.00  1.00
A''    1.00 -1.00

     the symmetry operations in each class and the name of the first element:

     E        1
                                                                 
     s        2
                                                                 

     Band symmetry, C_s (m)     point group:

     e(  1 -  1) =     -4.18495  eV     1   --> A'             
     e(  2 -  2) =      0.86390  eV     1   --> A'             
     e(  3 -  3) =      3.19930  eV     1   --> A'             
     e(  4 -  4) =      3.64224  eV     1   --> A''            
     e(  5 -  5) =      7.15110  eV     1   --> A'             
     e(  6 -  6) =      8.67073  eV     1   --> A'             
     e(  7 -  7) =     11.57510  eV     1   --> A'             
     e(  8 -  8) =     11.90255  eV     1   --> A''            

 **************************************************************************

 **************************************************************************

                    xk=(   0.75000,  -0.25000,   0.75000  )

     Band symmetry, C_s (m)     point group:

     e(  1 -  1) =     -3.30188  eV     1   --> A'             
     e(  2 -  2) =     -0.51018  eV     1   --> A'             
     e(  3 -  3) =      2.36703  eV     1   --> A'             
     e(  4 -  4) =      3.64285  eV     1   --> A''            
     e(  5 -  5) =      7.32345  eV     1   --> A'             
     e(  6 -  6) =     10.17578  eV     1   --> A'             
     e(  7 -  7) =     11.30239  eV     1   --> A'             
     e(  8 -  8) =     11.59362  eV     1   --> A''            

 **************************************************************************

 **************************************************************************

                    xk=(   0.62500,  -0.12500,   0.62500  )

     Band symmetry, C_s (m)     point group:

     e(  1 -  1) =     -3.11188  eV     1   --> A'             
     e(  2 -  2) =     -0.75161  eV     1   --> A'             
     e(  3 -  3) =      1.93090  eV     1   --> A'             
     e(  4 -  4) =      3.94706  eV     1   --> A''            
     e(  5 -  5) =      7.62606  eV     1   --> A'             
     e(  6 -  6) =     11.09502  eV     1   --> A'             
     e(  7 -  7) =     11.16239  eV     1   --> A''            
     e(  8 -  8) =     12.56686  eV     1   --> A'             

 **************************************************************************

 **************************************************************************

                    xk=(   0.50000,   0.00000,   0.50000  )

     point group C_2v (mm2) 
     there are  4 classes
     the character table:

       E     C2    s_v   s_v' 
A_1    1.00  1.00  1.00  1.00
A_2    1.00  1.00 -1.00 -1.00
B_1    1.00 -1.00  1.00 -1.00
B_2    1.00 -1.00 -1.00  1.00

     the symmetry operations in each class and the name of the first element:

     E        1
                                                                 
     C2       2
                                                                 
     s_v      3
                                                                 
     s_v'     4
                                                                 

     Band symmetry, C_2v (mm2)  point group:

     e(  1 -  1) =     -3.94686  eV     1   --> A_1  D_1  S_1  
     e(  2 -  2) =      0.35553  eV     1   --> B_2  D_4  S_4  
     e(  3 -  3) =      2.17213  eV     1   --> A_1  D_1  S_1  
     e(  4 -  4) =      4.48144  eV     1   --> A_2  D_2  S_2  
     e(  5 -  5) =      8.18087  eV     1   --> B_2  D_4  S_4  
     e(  6 -  6) =     10.46244  eV     1   --> B_1  D_3  S_3  
     e(  7 -  7) =     10.79644  eV     1   --> A_1  D_1  S_1  
     e(  8 -  8) =     11.68573  eV     1   --> B_2  D_4  S_4  

 **************************************************************************

 **************************************************************************

                    xk=(   0.00000,   0.75000,   0.00000  )

     point group C_4v (4mm) 
     there are  5 classes
     the character table:

       E     2C4   C2    2s_v  2s_d 
A_1    1.00  1.00  1.00  1.00  1.00
A_2    1.00  1.00  1.00 -1.00 -1.00
B_1    1.00 -1.00  1.00  1.00 -1.00
B_2    1.00 -1.00  1.00 -1.00  1.00
E      2.00  0.00 -2.00  0.00  0.00

     the symmetry operations in each class and the name of the first element:

     E        1
                                                                 
     2C4      3    4
                                                                 
     C2       2
                                                                 
     2s_v     5    6
                                                                 
     2s_d     7    8
                                                                 

     Band symmetry, C_4v (4mm)  point group:

     e(  1 -  1) =     -3.60403  eV     1   --> A_1  G_1 D_1   
     e(  2 -  2) =      0.07495  eV     1   --> B_2  G_4 D_2'  
     e(  3 -  4) =      3.25823  eV     2   --> E    G_5 D_5   
     e(  5 -  5) =      6.44666  eV     1   --> A_1  G_1 D_1   
     e(  6 -  6) =      7.37354  eV     1   --> B_2  G_4 D_2'  
     e(  7 -  8) =     13.58684  eV     2   --> E    G_5 D_5   

 **************************************************************************

 **************************************************************************

                    xk=(   0.87500,  -0.12500,   0.87500  )

     point group C_s (m)    
     there are  2 classes
     the character table:

       E     s    
A'     1.00  1.00
A''    1.00 -1.00

     the symmetry operations in each class and the name of the first element:

     E        1
                                                                 
     s        2
                                                                 

     Band symmetry, C_s (m)     point group:

     e(  1 -  1) =     -2.74343  eV     1   --> A'             
     e(  2 -  2) =     -0.97249  eV     1   --> A'             
     e(  3 -  3) =      2.47653  eV     1   --> A'             
     e(  4 -  4) =      3.18385  eV     1   --> A''            
     e(  5 -  5) =      6.72868  eV     1   --> A'             
     e(  6 -  6) =      7.76412  eV     1   --> A'             
     e(  7 -  7) =     13.83561  eV     1   --> A''            
     e(  8 -  8) =     13.85555  eV     1   --> A'             

 **************************************************************************

 **************************************************************************

                    xk=(   0.75000,   0.00000,   0.75000  )

     point group C_2v (mm2) 
     there are  4 classes
     the character table:

       E     C2    s_v   s_v' 
A_1    1.00  1.00  1.00  1.00
A_2    1.00  1.00 -1.00 -1.00
B_1    1.00 -1.00  1.00 -1.00
B_2    1.00 -1.00 -1.00  1.00

     the symmetry operations in each class and the name of the first element:

     E        1
                                                                 
     C2       2
                                                                 
     s_v      3
                                                                 
     s_v'     4
                                                                 

     Band symmetry, C_2v (mm2)  point group:

     e(  1 -  1) =     -2.33583  eV     1   --> A_1  D_1  S_1  
     e(  2 -  2) =     -1.34617  eV     1   --> B_2  D_4  S_4  
     e(  3 -  3) =      1.65836  eV     1   --> A_1  D_1  S_1  
     e(  4 -  4) =      3.43085  eV     1   --> A_2  D_2  S_2  
     e(  5 -  5) =      7.02529  eV     1   --> B_2  D_4  S_4  
     e(  6 -  6) =      9.85674  eV     1   --> A_1  D_1  S_1  
     e(  7 -  7) =     13.04313  eV     1   --> B_1  D_3  S_3  
     e(  8 -  8) =     13.67183  eV     1   -->   ?

 **************************************************************************

 **************************************************************************

                    xk=(   0.00000,  -1.00000,   0.00000  )

     zone border point and non-symmorphic group 
     symmetry decomposition not available

 **************************************************************************

 **************************************************************************

                    xk=(  -0.25000,   0.50000,   0.00000  )

     point group C_s (m)    
     there are  2 classes
     the character table:

       E     s    
A'     1.00  1.00
A''    1.00 -1.00

     the symmetry operations in each class and the name of the first element:

     E        1
                                                                 
     s        2
                                                                 

     Band symmetry, C_s (m)     point group:

     e(  1 -  1) =     -4.63029  eV     1   --> A'             
     e(  2 -  2) =      1.50666  eV     1   --> A''            
     e(  3 -  3) =      3.16667  eV     1   --> A'             
     e(  4 -  4) =      4.38562  eV     1   --> A''            
     e(  5 -  5) =      8.19792  eV     1   --> A'             
     e(  6 -  6) =      9.49713  eV     1   --> A''            
     e(  7 -  7) =      9.97986  eV     1   --> A''            
     e(  8 -  8) =     11.13784  eV     1   --> A'             

 **************************************************************************

 **************************************************************************

                    xk=(   0.62500,  -0.37500,   0.87500  )

     point group C_1 (1)    
     there are  1 classes
     the character table:

       E    
A      1.00

     the symmetry operations in each class and the name of the first element:

     E        1
                                                                 

     Band symmetry, C_1 (1)     point group:

     e(  1 -  1) =     -3.78042  eV     1   --> A              
     e(  2 -  2) =      0.01982  eV     1   --> A              
     e(  3 -  3) =      2.56668  eV     1   --> A              
     e(  4 -  4) =      3.91192  eV     1   --> A              
     e(  5 -  5) =      8.60737  eV     1   --> A              
     e(  6 -  6) =      9.26418  eV     1   --> A              
     e(  7 -  7) =     10.69484  eV     1   --> A              
     e(  8 -  8) =     11.58180  eV     1   --> A              

 **************************************************************************

 **************************************************************************

                    xk=(   0.50000,  -0.25000,   0.75000  )

     zone border point and non-symmorphic group 
     symmetry decomposition not available

 **************************************************************************

 **************************************************************************

                    xk=(   0.75000,  -0.25000,   1.00000  )

     zone border point and non-symmorphic group 
     symmetry decomposition not available

 **************************************************************************

 **************************************************************************

                    xk=(   0.62500,  -0.12500,   0.87500  )

     point group C_1 (1)    
     there are  1 classes
     the character table:

       E    
A      1.00

     the symmetry operations in each class and the name of the first element:

     E        1
                                                                 

     Band symmetry, C_1 (1)     point group:

     e(  1 -  1) =     -2.58434  eV     1   --> A              
     e(  2 -  2) =     -1.06510  eV     1   --> A              
     e(  3 -  3) =      1.88193  eV     1   --> A              
     e(  4 -  4) =      2.93348  eV     1   --> A              
     e(  5 -  5) =      8.16235  eV     1   --> A              
     e(  6 -  6) =     10.01932  eV     1   --> A              
     e(  7 -  7) =     10.90413  eV     1   --> A              
     e(  8 -  8) =     13.01672  eV     1   --> A              

 **************************************************************************

 **************************************************************************

                    xk=(   0.50000,   0.00000,   0.75000  )

     point group C_s (m)    
     there are  2 classes
     the character table:

       E     s    
A'     1.00  1.00
A''    1.00 -1.00

     the symmetry operations in each class and the name of the first element:

     E        1
                                                                 
     s        2
                                                                 

     Band symmetry, C_s (m)     point group:

     e(  1 -  1) =     -2.92079  eV     1   --> A'             
     e(  2 -  2) =     -0.71279  eV     1   --> A''            
     e(  3 -  3) =      1.72405  eV     1   --> A'             
     e(  4 -  4) =      3.29088  eV     1   --> A''            
     e(  5 -  5) =      8.62008  eV     1   --> A''            
     e(  6 -  6) =     10.24468  eV     1   --> A'             
     e(  7 -  7) =     10.87538  eV     1   --> A''            
     e(  8 -  8) =     12.65289  eV     1   --> A'             

 **************************************************************************

 **************************************************************************

                    xk=(  -0.25000,  -1.00000,   0.00000  )

     zone border point and non-symmorphic group 
     symmetry decomposition not available

 **************************************************************************

 **************************************************************************

                    xk=(  -0.50000,  -1.00000,   0.00000  )

     zone border point and non-symmorphic group 
     symmetry decomposition not available

 **************************************************************************

     BANDS        :      4.82s CPU      5.10s WALL


   This run was terminated on:   1: 3: 6  17Sep2020            

=------------------------------------------------------------------------------=
   JOB DONE.
=------------------------------------------------------------------------------=
